

1024 atoms

2 atom types

-2.3094000000000037e-01 9.4685400000000008e+00 xlo xhi
-2.3094000000000037e-01 9.4685400000000008e+00 ylo yhi
-2.3094000000000037e-01 9.4685400000000008e+00 zlo zhi

Atoms

1 1 -0.23094 -0.23094 -0.23094 
2 2 0.375277 0.375277 0.375277 
3 1 -0.23094 0.981495 -0.23094 
4 2 0.375277 1.58771 0.375277 
17 1 0.981495 -0.23094 -0.23094 
18 2 1.58771 0.375277 0.375277 
19 1 0.981495 0.981495 -0.23094 
20 2 1.58771 1.58771 0.375277 
129 1 -0.23094 -0.23094 0.981495 
130 2 0.375277 0.375277 1.58771 
131 1 -0.23094 0.981495 0.981495 
132 2 0.375277 1.58771 1.58771 
145 1 0.981495 -0.23094 0.981495 
146 2 1.58771 0.375277 1.58771 
147 1 0.981495 0.981495 0.981495 
148 2 1.58771 1.58771 1.58771 
33 1 2.19393 -0.23094 -0.23094 
34 2 2.80015 0.375277 0.375277 
35 1 2.19393 0.981495 -0.23094 
36 2 2.80015 1.58771 0.375277 
49 1 3.40637 -0.23094 -0.23094 
50 2 4.01258 0.375277 0.375277 
51 1 3.40637 0.981495 -0.23094 
52 2 4.01258 1.58771 0.375277 
161 1 2.19393 -0.23094 0.981495 
162 2 2.80015 0.375277 1.58771 
163 1 2.19393 0.981495 0.981495 
164 2 2.80015 1.58771 1.58771 
177 1 3.40637 -0.23094 0.981495 
178 2 4.01258 0.375277 1.58771 
179 1 3.40637 0.981495 0.981495 
180 2 4.01258 1.58771 1.58771 
65 1 4.6188 -0.23094 -0.23094 
66 2 5.22502 0.375277 0.375277 
67 1 4.6188 0.981495 -0.23094 
68 2 5.22502 1.58771 0.375277 
81 1 5.83124 -0.23094 -0.23094 
82 2 6.43745 0.375277 0.375277 
83 1 5.83124 0.981495 -0.23094 
84 2 6.43745 1.58771 0.375277 
193 1 4.6188 -0.23094 0.981495 
194 2 5.22502 0.375277 1.58771 
195 1 4.6188 0.981495 0.981495 
196 2 5.22502 1.58771 1.58771 
209 1 5.83124 -0.23094 0.981495 
210 2 6.43745 0.375277 1.58771 
211 1 5.83124 0.981495 0.981495 
212 2 6.43745 1.58771 1.58771 
97 1 7.04367 -0.23094 -0.23094 
98 2 7.64989 0.375277 0.375277 
99 1 7.04367 0.981495 -0.23094 
100 2 7.64989 1.58771 0.375277 
113 1 8.25611 -0.23094 -0.23094 
114 2 8.86232 0.375277 0.375277 
115 1 8.25611 0.981495 -0.23094 
116 2 8.86232 1.58771 0.375277 
225 1 7.04367 -0.23094 0.981495 
226 2 7.64989 0.375277 1.58771 
227 1 7.04367 0.981495 0.981495 
228 2 7.64989 1.58771 1.58771 
241 1 8.25611 -0.23094 0.981495 
242 2 8.86232 0.375277 1.58771 
243 1 8.25611 0.981495 0.981495 
244 2 8.86232 1.58771 1.58771 
5 1 -0.23094 2.19393 -0.23094 
6 2 0.375277 2.80015 0.375277 
7 1 -0.23094 3.40637 -0.23094 
8 2 0.375277 4.01258 0.375277 
21 1 0.981495 2.19393 -0.23094 
22 2 1.58771 2.80015 0.375277 
23 1 0.981495 3.40637 -0.23094 
24 2 1.58771 4.01258 0.375277 
133 1 -0.23094 2.19393 0.981495 
134 2 0.375277 2.80015 1.58771 
135 1 -0.23094 3.40637 0.981495 
136 2 0.375277 4.01258 1.58771 
149 1 0.981495 2.19393 0.981495 
150 2 1.58771 2.80015 1.58771 
151 1 0.981495 3.40637 0.981495 
152 2 1.58771 4.01258 1.58771 
37 1 2.19393 2.19393 -0.23094 
38 2 2.80015 2.80015 0.375277 
39 1 2.19393 3.40637 -0.23094 
40 2 2.80015 4.01258 0.375277 
53 1 3.40637 2.19393 -0.23094 
54 2 4.01258 2.80015 0.375277 
55 1 3.40637 3.40637 -0.23094 
56 2 4.01258 4.01258 0.375277 
165 1 2.19393 2.19393 0.981495 
166 2 2.80015 2.80015 1.58771 
167 1 2.19393 3.40637 0.981495 
168 2 2.80015 4.01258 1.58771 
181 1 3.40637 2.19393 0.981495 
182 2 4.01258 2.80015 1.58771 
183 1 3.40637 3.40637 0.981495 
184 2 4.01258 4.01258 1.58771 
69 1 4.6188 2.19393 -0.23094 
70 2 5.22502 2.80015 0.375277 
71 1 4.6188 3.40637 -0.23094 
72 2 5.22502 4.01258 0.375277 
85 1 5.83124 2.19393 -0.23094 
86 2 6.43745 2.80015 0.375277 
87 1 5.83124 3.40637 -0.23094 
88 2 6.43745 4.01258 0.375277 
197 1 4.6188 2.19393 0.981495 
198 2 5.22502 2.80015 1.58771 
199 1 4.6188 3.40637 0.981495 
200 2 5.22502 4.01258 1.58771 
213 1 5.83124 2.19393 0.981495 
214 2 6.43745 2.80015 1.58771 
215 1 5.83124 3.40637 0.981495 
216 2 6.43745 4.01258 1.58771 
101 1 7.04367 2.19393 -0.23094 
102 2 7.64989 2.80015 0.375277 
103 1 7.04367 3.40637 -0.23094 
104 2 7.64989 4.01258 0.375277 
117 1 8.25611 2.19393 -0.23094 
118 2 8.86232 2.80015 0.375277 
119 1 8.25611 3.40637 -0.23094 
120 2 8.86232 4.01258 0.375277 
229 1 7.04367 2.19393 0.981495 
230 2 7.64989 2.80015 1.58771 
231 1 7.04367 3.40637 0.981495 
232 2 7.64989 4.01258 1.58771 
245 1 8.25611 2.19393 0.981495 
246 2 8.86232 2.80015 1.58771 
247 1 8.25611 3.40637 0.981495 
248 2 8.86232 4.01258 1.58771 
257 1 -0.23094 -0.23094 2.19393 
258 2 0.375277 0.375277 2.80015 
259 1 -0.23094 0.981495 2.19393 
260 2 0.375277 1.58771 2.80015 
273 1 0.981495 -0.23094 2.19393 
274 2 1.58771 0.375277 2.80015 
275 1 0.981495 0.981495 2.19393 
276 2 1.58771 1.58771 2.80015 
385 1 -0.23094 -0.23094 3.40637 
386 2 0.375277 0.375277 4.01258 
387 1 -0.23094 0.981495 3.40637 
388 2 0.375277 1.58771 4.01258 
401 1 0.981495 -0.23094 3.40637 
402 2 1.58771 0.375277 4.01258 
403 1 0.981495 0.981495 3.40637 
404 2 1.58771 1.58771 4.01258 
289 1 2.19393 -0.23094 2.19393 
290 2 2.80015 0.375277 2.80015 
291 1 2.19393 0.981495 2.19393 
292 2 2.80015 1.58771 2.80015 
305 1 3.40637 -0.23094 2.19393 
306 2 4.01258 0.375277 2.80015 
307 1 3.40637 0.981495 2.19393 
308 2 4.01258 1.58771 2.80015 
417 1 2.19393 -0.23094 3.40637 
418 2 2.80015 0.375277 4.01258 
419 1 2.19393 0.981495 3.40637 
420 2 2.80015 1.58771 4.01258 
433 1 3.40637 -0.23094 3.40637 
434 2 4.01258 0.375277 4.01258 
435 1 3.40637 0.981495 3.40637 
436 2 4.01258 1.58771 4.01258 
321 1 4.6188 -0.23094 2.19393 
322 2 5.22502 0.375277 2.80015 
323 1 4.6188 0.981495 2.19393 
324 2 5.22502 1.58771 2.80015 
337 1 5.83124 -0.23094 2.19393 
338 2 6.43745 0.375277 2.80015 
339 1 5.83124 0.981495 2.19393 
340 2 6.43745 1.58771 2.80015 
449 1 4.6188 -0.23094 3.40637 
450 2 5.22502 0.375277 4.01258 
451 1 4.6188 0.981495 3.40637 
452 2 5.22502 1.58771 4.01258 
465 1 5.83124 -0.23094 3.40637 
466 2 6.43745 0.375277 4.01258 
467 1 5.83124 0.981495 3.40637 
468 2 6.43745 1.58771 4.01258 
353 1 7.04367 -0.23094 2.19393 
354 2 7.64989 0.375277 2.80015 
355 1 7.04367 0.981495 2.19393 
356 2 7.64989 1.58771 2.80015 
369 1 8.25611 -0.23094 2.19393 
370 2 8.86232 0.375277 2.80015 
371 1 8.25611 0.981495 2.19393 
372 2 8.86232 1.58771 2.80015 
481 1 7.04367 -0.23094 3.40637 
482 2 7.64989 0.375277 4.01258 
483 1 7.04367 0.981495 3.40637 
484 2 7.64989 1.58771 4.01258 
497 1 8.25611 -0.23094 3.40637 
498 2 8.86232 0.375277 4.01258 
499 1 8.25611 0.981495 3.40637 
500 2 8.86232 1.58771 4.01258 
261 1 -0.23094 2.19393 2.19393 
262 2 0.375277 2.80015 2.80015 
263 1 -0.23094 3.40637 2.19393 
264 2 0.375277 4.01258 2.80015 
277 1 0.981495 2.19393 2.19393 
278 2 1.58771 2.80015 2.80015 
279 1 0.981495 3.40637 2.19393 
280 2 1.58771 4.01258 2.80015 
389 1 -0.23094 2.19393 3.40637 
390 2 0.375277 2.80015 4.01258 
391 1 -0.23094 3.40637 3.40637 
392 2 0.375277 4.01258 4.01258 
405 1 0.981495 2.19393 3.40637 
406 2 1.58771 2.80015 4.01258 
407 1 0.981495 3.40637 3.40637 
408 2 1.58771 4.01258 4.01258 
293 1 2.19393 2.19393 2.19393 
294 2 2.80015 2.80015 2.80015 
295 1 2.19393 3.40637 2.19393 
296 2 2.80015 4.01258 2.80015 
309 1 3.40637 2.19393 2.19393 
310 2 4.01258 2.80015 2.80015 
311 1 3.40637 3.40637 2.19393 
312 2 4.01258 4.01258 2.80015 
421 1 2.19393 2.19393 3.40637 
422 2 2.80015 2.80015 4.01258 
423 1 2.19393 3.40637 3.40637 
424 2 2.80015 4.01258 4.01258 
437 1 3.40637 2.19393 3.40637 
438 2 4.01258 2.80015 4.01258 
439 1 3.40637 3.40637 3.40637 
440 2 4.01258 4.01258 4.01258 
325 1 4.6188 2.19393 2.19393 
326 2 5.22502 2.80015 2.80015 
327 1 4.6188 3.40637 2.19393 
328 2 5.22502 4.01258 2.80015 
341 1 5.83124 2.19393 2.19393 
342 2 6.43745 2.80015 2.80015 
343 1 5.83124 3.40637 2.19393 
344 2 6.43745 4.01258 2.80015 
453 1 4.6188 2.19393 3.40637 
454 2 5.22502 2.80015 4.01258 
455 1 4.6188 3.40637 3.40637 
456 2 5.22502 4.01258 4.01258 
469 1 5.83124 2.19393 3.40637 
470 2 6.43745 2.80015 4.01258 
471 1 5.83124 3.40637 3.40637 
472 2 6.43745 4.01258 4.01258 
357 1 7.04367 2.19393 2.19393 
358 2 7.64989 2.80015 2.80015 
359 1 7.04367 3.40637 2.19393 
360 2 7.64989 4.01258 2.80015 
373 1 8.25611 2.19393 2.19393 
374 2 8.86232 2.80015 2.80015 
375 1 8.25611 3.40637 2.19393 
376 2 8.86232 4.01258 2.80015 
485 1 7.04367 2.19393 3.40637 
486 2 7.64989 2.80015 4.01258 
487 1 7.04367 3.40637 3.40637 
488 2 7.64989 4.01258 4.01258 
501 1 8.25611 2.19393 3.40637 
502 2 8.86232 2.80015 4.01258 
503 1 8.25611 3.40637 3.40637 
504 2 8.86232 4.01258 4.01258 
513 1 -0.23094 -0.23094 4.6188 
514 2 0.375277 0.375277 5.22502 
515 1 -0.23094 0.981495 4.6188 
516 2 0.375277 1.58771 5.22502 
529 1 0.981495 -0.23094 4.6188 
530 2 1.58771 0.375277 5.22502 
531 1 0.981495 0.981495 4.6188 
532 2 1.58771 1.58771 5.22502 
641 1 -0.23094 -0.23094 5.83124 
642 2 0.375277 0.375277 6.43745 
643 1 -0.23094 0.981495 5.83124 
644 2 0.375277 1.58771 6.43745 
657 1 0.981495 -0.23094 5.83124 
658 2 1.58771 0.375277 6.43745 
659 1 0.981495 0.981495 5.83124 
660 2 1.58771 1.58771 6.43745 
545 1 2.19393 -0.23094 4.6188 
546 2 2.80015 0.375277 5.22502 
547 1 2.19393 0.981495 4.6188 
548 2 2.80015 1.58771 5.22502 
561 1 3.40637 -0.23094 4.6188 
562 2 4.01258 0.375277 5.22502 
563 1 3.40637 0.981495 4.6188 
564 2 4.01258 1.58771 5.22502 
673 1 2.19393 -0.23094 5.83124 
674 2 2.80015 0.375277 6.43745 
675 1 2.19393 0.981495 5.83124 
676 2 2.80015 1.58771 6.43745 
689 1 3.40637 -0.23094 5.83124 
690 2 4.01258 0.375277 6.43745 
691 1 3.40637 0.981495 5.83124 
692 2 4.01258 1.58771 6.43745 
577 1 4.6188 -0.23094 4.6188 
578 2 5.22502 0.375277 5.22502 
579 1 4.6188 0.981495 4.6188 
580 2 5.22502 1.58771 5.22502 
593 1 5.83124 -0.23094 4.6188 
594 2 6.43745 0.375277 5.22502 
595 1 5.83124 0.981495 4.6188 
596 2 6.43745 1.58771 5.22502 
705 1 4.6188 -0.23094 5.83124 
706 2 5.22502 0.375277 6.43745 
707 1 4.6188 0.981495 5.83124 
708 2 5.22502 1.58771 6.43745 
721 1 5.83124 -0.23094 5.83124 
722 2 6.43745 0.375277 6.43745 
723 1 5.83124 0.981495 5.83124 
724 2 6.43745 1.58771 6.43745 
609 1 7.04367 -0.23094 4.6188 
610 2 7.64989 0.375277 5.22502 
611 1 7.04367 0.981495 4.6188 
612 2 7.64989 1.58771 5.22502 
625 1 8.25611 -0.23094 4.6188 
626 2 8.86232 0.375277 5.22502 
627 1 8.25611 0.981495 4.6188 
628 2 8.86232 1.58771 5.22502 
737 1 7.04367 -0.23094 5.83124 
738 2 7.64989 0.375277 6.43745 
739 1 7.04367 0.981495 5.83124 
740 2 7.64989 1.58771 6.43745 
753 1 8.25611 -0.23094 5.83124 
754 2 8.86232 0.375277 6.43745 
755 1 8.25611 0.981495 5.83124 
756 2 8.86232 1.58771 6.43745 
517 1 -0.23094 2.19393 4.6188 
518 2 0.375277 2.80015 5.22502 
519 1 -0.23094 3.40637 4.6188 
520 2 0.375277 4.01258 5.22502 
533 1 0.981495 2.19393 4.6188 
534 2 1.58771 2.80015 5.22502 
535 1 0.981495 3.40637 4.6188 
536 2 1.58771 4.01258 5.22502 
645 1 -0.23094 2.19393 5.83124 
646 2 0.375277 2.80015 6.43745 
647 1 -0.23094 3.40637 5.83124 
648 2 0.375277 4.01258 6.43745 
661 1 0.981495 2.19393 5.83124 
662 2 1.58771 2.80015 6.43745 
663 1 0.981495 3.40637 5.83124 
664 2 1.58771 4.01258 6.43745 
549 1 2.19393 2.19393 4.6188 
550 2 2.80015 2.80015 5.22502 
551 1 2.19393 3.40637 4.6188 
552 2 2.80015 4.01258 5.22502 
565 1 3.40637 2.19393 4.6188 
566 2 4.01258 2.80015 5.22502 
567 1 3.40637 3.40637 4.6188 
568 2 4.01258 4.01258 5.22502 
677 1 2.19393 2.19393 5.83124 
678 2 2.80015 2.80015 6.43745 
679 1 2.19393 3.40637 5.83124 
680 2 2.80015 4.01258 6.43745 
693 1 3.40637 2.19393 5.83124 
694 2 4.01258 2.80015 6.43745 
695 1 3.40637 3.40637 5.83124 
696 2 4.01258 4.01258 6.43745 
581 1 4.6188 2.19393 4.6188 
582 2 5.22502 2.80015 5.22502 
583 1 4.6188 3.40637 4.6188 
584 2 5.22502 4.01258 5.22502 
597 1 5.83124 2.19393 4.6188 
598 2 6.43745 2.80015 5.22502 
599 1 5.83124 3.40637 4.6188 
600 2 6.43745 4.01258 5.22502 
709 1 4.6188 2.19393 5.83124 
710 2 5.22502 2.80015 6.43745 
711 1 4.6188 3.40637 5.83124 
712 2 5.22502 4.01258 6.43745 
725 1 5.83124 2.19393 5.83124 
726 2 6.43745 2.80015 6.43745 
727 1 5.83124 3.40637 5.83124 
728 2 6.43745 4.01258 6.43745 
613 1 7.04367 2.19393 4.6188 
614 2 7.64989 2.80015 5.22502 
615 1 7.04367 3.40637 4.6188 
616 2 7.64989 4.01258 5.22502 
629 1 8.25611 2.19393 4.6188 
630 2 8.86232 2.80015 5.22502 
631 1 8.25611 3.40637 4.6188 
632 2 8.86232 4.01258 5.22502 
741 1 7.04367 2.19393 5.83124 
742 2 7.64989 2.80015 6.43745 
743 1 7.04367 3.40637 5.83124 
744 2 7.64989 4.01258 6.43745 
757 1 8.25611 2.19393 5.83124 
758 2 8.86232 2.80015 6.43745 
759 1 8.25611 3.40637 5.83124 
760 2 8.86232 4.01258 6.43745 
769 1 -0.23094 -0.23094 7.04367 
770 2 0.375277 0.375277 7.64989 
771 1 -0.23094 0.981495 7.04367 
772 2 0.375277 1.58771 7.64989 
785 1 0.981495 -0.23094 7.04367 
786 2 1.58771 0.375277 7.64989 
787 1 0.981495 0.981495 7.04367 
788 2 1.58771 1.58771 7.64989 
897 1 -0.23094 -0.23094 8.25611 
898 2 0.375277 0.375277 8.86232 
899 1 -0.23094 0.981495 8.25611 
900 2 0.375277 1.58771 8.86232 
913 1 0.981495 -0.23094 8.25611 
914 2 1.58771 0.375277 8.86232 
915 1 0.981495 0.981495 8.25611 
916 2 1.58771 1.58771 8.86232 
801 1 2.19393 -0.23094 7.04367 
802 2 2.80015 0.375277 7.64989 
803 1 2.19393 0.981495 7.04367 
804 2 2.80015 1.58771 7.64989 
817 1 3.40637 -0.23094 7.04367 
818 2 4.01258 0.375277 7.64989 
819 1 3.40637 0.981495 7.04367 
820 2 4.01258 1.58771 7.64989 
929 1 2.19393 -0.23094 8.25611 
930 2 2.80015 0.375277 8.86232 
931 1 2.19393 0.981495 8.25611 
932 2 2.80015 1.58771 8.86232 
945 1 3.40637 -0.23094 8.25611 
946 2 4.01258 0.375277 8.86232 
947 1 3.40637 0.981495 8.25611 
948 2 4.01258 1.58771 8.86232 
833 1 4.6188 -0.23094 7.04367 
834 2 5.22502 0.375277 7.64989 
835 1 4.6188 0.981495 7.04367 
836 2 5.22502 1.58771 7.64989 
849 1 5.83124 -0.23094 7.04367 
850 2 6.43745 0.375277 7.64989 
851 1 5.83124 0.981495 7.04367 
852 2 6.43745 1.58771 7.64989 
961 1 4.6188 -0.23094 8.25611 
962 2 5.22502 0.375277 8.86232 
963 1 4.6188 0.981495 8.25611 
964 2 5.22502 1.58771 8.86232 
977 1 5.83124 -0.23094 8.25611 
978 2 6.43745 0.375277 8.86232 
979 1 5.83124 0.981495 8.25611 
980 2 6.43745 1.58771 8.86232 
865 1 7.04367 -0.23094 7.04367 
866 2 7.64989 0.375277 7.64989 
867 1 7.04367 0.981495 7.04367 
868 2 7.64989 1.58771 7.64989 
881 1 8.25611 -0.23094 7.04367 
882 2 8.86232 0.375277 7.64989 
883 1 8.25611 0.981495 7.04367 
884 2 8.86232 1.58771 7.64989 
993 1 7.04367 -0.23094 8.25611 
994 2 7.64989 0.375277 8.86232 
995 1 7.04367 0.981495 8.25611 
996 2 7.64989 1.58771 8.86232 
1009 1 8.25611 -0.23094 8.25611 
1010 2 8.86232 0.375277 8.86232 
1011 1 8.25611 0.981495 8.25611 
1012 2 8.86232 1.58771 8.86232 
773 1 -0.23094 2.19393 7.04367 
774 2 0.375277 2.80015 7.64989 
775 1 -0.23094 3.40637 7.04367 
776 2 0.375277 4.01258 7.64989 
789 1 0.981495 2.19393 7.04367 
790 2 1.58771 2.80015 7.64989 
791 1 0.981495 3.40637 7.04367 
792 2 1.58771 4.01258 7.64989 
901 1 -0.23094 2.19393 8.25611 
902 2 0.375277 2.80015 8.86232 
903 1 -0.23094 3.40637 8.25611 
904 2 0.375277 4.01258 8.86232 
917 1 0.981495 2.19393 8.25611 
918 2 1.58771 2.80015 8.86232 
919 1 0.981495 3.40637 8.25611 
920 2 1.58771 4.01258 8.86232 
805 1 2.19393 2.19393 7.04367 
806 2 2.80015 2.80015 7.64989 
807 1 2.19393 3.40637 7.04367 
808 2 2.80015 4.01258 7.64989 
821 1 3.40637 2.19393 7.04367 
822 2 4.01258 2.80015 7.64989 
823 1 3.40637 3.40637 7.04367 
824 2 4.01258 4.01258 7.64989 
933 1 2.19393 2.19393 8.25611 
934 2 2.80015 2.80015 8.86232 
935 1 2.19393 3.40637 8.25611 
936 2 2.80015 4.01258 8.86232 
949 1 3.40637 2.19393 8.25611 
950 2 4.01258 2.80015 8.86232 
951 1 3.40637 3.40637 8.25611 
952 2 4.01258 4.01258 8.86232 
837 1 4.6188 2.19393 7.04367 
838 2 5.22502 2.80015 7.64989 
839 1 4.6188 3.40637 7.04367 
840 2 5.22502 4.01258 7.64989 
853 1 5.83124 2.19393 7.04367 
854 2 6.43745 2.80015 7.64989 
855 1 5.83124 3.40637 7.04367 
856 2 6.43745 4.01258 7.64989 
965 1 4.6188 2.19393 8.25611 
966 2 5.22502 2.80015 8.86232 
967 1 4.6188 3.40637 8.25611 
968 2 5.22502 4.01258 8.86232 
981 1 5.83124 2.19393 8.25611 
982 2 6.43745 2.80015 8.86232 
983 1 5.83124 3.40637 8.25611 
984 2 6.43745 4.01258 8.86232 
869 1 7.04367 2.19393 7.04367 
870 2 7.64989 2.80015 7.64989 
871 1 7.04367 3.40637 7.04367 
872 2 7.64989 4.01258 7.64989 
885 1 8.25611 2.19393 7.04367 
886 2 8.86232 2.80015 7.64989 
887 1 8.25611 3.40637 7.04367 
888 2 8.86232 4.01258 7.64989 
997 1 7.04367 2.19393 8.25611 
998 2 7.64989 2.80015 8.86232 
999 1 7.04367 3.40637 8.25611 
1000 2 7.64989 4.01258 8.86232 
1013 1 8.25611 2.19393 8.25611 
1014 2 8.86232 2.80015 8.86232 
1015 1 8.25611 3.40637 8.25611 
1016 2 8.86232 4.01258 8.86232 
9 1 -0.23094 4.6188 -0.23094 
10 2 0.375277 5.22502 0.375277 
11 1 -0.23094 5.83124 -0.23094 
12 2 0.375277 6.43745 0.375277 
25 1 0.981495 4.6188 -0.23094 
26 2 1.58771 5.22502 0.375277 
27 1 0.981495 5.83124 -0.23094 
28 2 1.58771 6.43745 0.375277 
137 1 -0.23094 4.6188 0.981495 
138 2 0.375277 5.22502 1.58771 
139 1 -0.23094 5.83124 0.981495 
140 2 0.375277 6.43745 1.58771 
153 1 0.981495 4.6188 0.981495 
154 2 1.58771 5.22502 1.58771 
155 1 0.981495 5.83124 0.981495 
156 2 1.58771 6.43745 1.58771 
41 1 2.19393 4.6188 -0.23094 
42 2 2.80015 5.22502 0.375277 
43 1 2.19393 5.83124 -0.23094 
44 2 2.80015 6.43745 0.375277 
57 1 3.40637 4.6188 -0.23094 
58 2 4.01258 5.22502 0.375277 
59 1 3.40637 5.83124 -0.23094 
60 2 4.01258 6.43745 0.375277 
169 1 2.19393 4.6188 0.981495 
170 2 2.80015 5.22502 1.58771 
171 1 2.19393 5.83124 0.981495 
172 2 2.80015 6.43745 1.58771 
185 1 3.40637 4.6188 0.981495 
186 2 4.01258 5.22502 1.58771 
187 1 3.40637 5.83124 0.981495 
188 2 4.01258 6.43745 1.58771 
73 1 4.6188 4.6188 -0.23094 
74 2 5.22502 5.22502 0.375277 
75 1 4.6188 5.83124 -0.23094 
76 2 5.22502 6.43745 0.375277 
89 1 5.83124 4.6188 -0.23094 
90 2 6.43745 5.22502 0.375277 
91 1 5.83124 5.83124 -0.23094 
92 2 6.43745 6.43745 0.375277 
201 1 4.6188 4.6188 0.981495 
202 2 5.22502 5.22502 1.58771 
203 1 4.6188 5.83124 0.981495 
204 2 5.22502 6.43745 1.58771 
217 1 5.83124 4.6188 0.981495 
218 2 6.43745 5.22502 1.58771 
219 1 5.83124 5.83124 0.981495 
220 2 6.43745 6.43745 1.58771 
105 1 7.04367 4.6188 -0.23094 
106 2 7.64989 5.22502 0.375277 
107 1 7.04367 5.83124 -0.23094 
108 2 7.64989 6.43745 0.375277 
121 1 8.25611 4.6188 -0.23094 
122 2 8.86232 5.22502 0.375277 
123 1 8.25611 5.83124 -0.23094 
124 2 8.86232 6.43745 0.375277 
233 1 7.04367 4.6188 0.981495 
234 2 7.64989 5.22502 1.58771 
235 1 7.04367 5.83124 0.981495 
236 2 7.64989 6.43745 1.58771 
249 1 8.25611 4.6188 0.981495 
250 2 8.86232 5.22502 1.58771 
251 1 8.25611 5.83124 0.981495 
252 2 8.86232 6.43745 1.58771 
13 1 -0.23094 7.04367 -0.23094 
14 2 0.375277 7.64989 0.375277 
15 1 -0.23094 8.25611 -0.23094 
16 2 0.375277 8.86232 0.375277 
29 1 0.981495 7.04367 -0.23094 
30 2 1.58771 7.64989 0.375277 
31 1 0.981495 8.25611 -0.23094 
32 2 1.58771 8.86232 0.375277 
141 1 -0.23094 7.04367 0.981495 
142 2 0.375277 7.64989 1.58771 
143 1 -0.23094 8.25611 0.981495 
144 2 0.375277 8.86232 1.58771 
157 1 0.981495 7.04367 0.981495 
158 2 1.58771 7.64989 1.58771 
159 1 0.981495 8.25611 0.981495 
160 2 1.58771 8.86232 1.58771 
45 1 2.19393 7.04367 -0.23094 
46 2 2.80015 7.64989 0.375277 
47 1 2.19393 8.25611 -0.23094 
48 2 2.80015 8.86232 0.375277 
61 1 3.40637 7.04367 -0.23094 
62 2 4.01258 7.64989 0.375277 
63 1 3.40637 8.25611 -0.23094 
64 2 4.01258 8.86232 0.375277 
173 1 2.19393 7.04367 0.981495 
174 2 2.80015 7.64989 1.58771 
175 1 2.19393 8.25611 0.981495 
176 2 2.80015 8.86232 1.58771 
189 1 3.40637 7.04367 0.981495 
190 2 4.01258 7.64989 1.58771 
191 1 3.40637 8.25611 0.981495 
192 2 4.01258 8.86232 1.58771 
77 1 4.6188 7.04367 -0.23094 
78 2 5.22502 7.64989 0.375277 
79 1 4.6188 8.25611 -0.23094 
80 2 5.22502 8.86232 0.375277 
93 1 5.83124 7.04367 -0.23094 
94 2 6.43745 7.64989 0.375277 
95 1 5.83124 8.25611 -0.23094 
96 2 6.43745 8.86232 0.375277 
205 1 4.6188 7.04367 0.981495 
206 2 5.22502 7.64989 1.58771 
207 1 4.6188 8.25611 0.981495 
208 2 5.22502 8.86232 1.58771 
221 1 5.83124 7.04367 0.981495 
222 2 6.43745 7.64989 1.58771 
223 1 5.83124 8.25611 0.981495 
224 2 6.43745 8.86232 1.58771 
109 1 7.04367 7.04367 -0.23094 
110 2 7.64989 7.64989 0.375277 
111 1 7.04367 8.25611 -0.23094 
112 2 7.64989 8.86232 0.375277 
125 1 8.25611 7.04367 -0.23094 
126 2 8.86232 7.64989 0.375277 
127 1 8.25611 8.25611 -0.23094 
128 2 8.86232 8.86232 0.375277 
237 1 7.04367 7.04367 0.981495 
238 2 7.64989 7.64989 1.58771 
239 1 7.04367 8.25611 0.981495 
240 2 7.64989 8.86232 1.58771 
253 1 8.25611 7.04367 0.981495 
254 2 8.86232 7.64989 1.58771 
255 1 8.25611 8.25611 0.981495 
256 2 8.86232 8.86232 1.58771 
265 1 -0.23094 4.6188 2.19393 
266 2 0.375277 5.22502 2.80015 
267 1 -0.23094 5.83124 2.19393 
268 2 0.375277 6.43745 2.80015 
281 1 0.981495 4.6188 2.19393 
282 2 1.58771 5.22502 2.80015 
283 1 0.981495 5.83124 2.19393 
284 2 1.58771 6.43745 2.80015 
393 1 -0.23094 4.6188 3.40637 
394 2 0.375277 5.22502 4.01258 
395 1 -0.23094 5.83124 3.40637 
396 2 0.375277 6.43745 4.01258 
409 1 0.981495 4.6188 3.40637 
410 2 1.58771 5.22502 4.01258 
411 1 0.981495 5.83124 3.40637 
412 2 1.58771 6.43745 4.01258 
297 1 2.19393 4.6188 2.19393 
298 2 2.80015 5.22502 2.80015 
299 1 2.19393 5.83124 2.19393 
300 2 2.80015 6.43745 2.80015 
313 1 3.40637 4.6188 2.19393 
314 2 4.01258 5.22502 2.80015 
315 1 3.40637 5.83124 2.19393 
316 2 4.01258 6.43745 2.80015 
425 1 2.19393 4.6188 3.40637 
426 2 2.80015 5.22502 4.01258 
427 1 2.19393 5.83124 3.40637 
428 2 2.80015 6.43745 4.01258 
441 1 3.40637 4.6188 3.40637 
442 2 4.01258 5.22502 4.01258 
443 1 3.40637 5.83124 3.40637 
444 2 4.01258 6.43745 4.01258 
329 1 4.6188 4.6188 2.19393 
330 2 5.22502 5.22502 2.80015 
331 1 4.6188 5.83124 2.19393 
332 2 5.22502 6.43745 2.80015 
345 1 5.83124 4.6188 2.19393 
346 2 6.43745 5.22502 2.80015 
347 1 5.83124 5.83124 2.19393 
348 2 6.43745 6.43745 2.80015 
457 1 4.6188 4.6188 3.40637 
458 2 5.22502 5.22502 4.01258 
459 1 4.6188 5.83124 3.40637 
460 2 5.22502 6.43745 4.01258 
473 1 5.83124 4.6188 3.40637 
474 2 6.43745 5.22502 4.01258 
475 1 5.83124 5.83124 3.40637 
476 2 6.43745 6.43745 4.01258 
361 1 7.04367 4.6188 2.19393 
362 2 7.64989 5.22502 2.80015 
363 1 7.04367 5.83124 2.19393 
364 2 7.64989 6.43745 2.80015 
377 1 8.25611 4.6188 2.19393 
378 2 8.86232 5.22502 2.80015 
379 1 8.25611 5.83124 2.19393 
380 2 8.86232 6.43745 2.80015 
489 1 7.04367 4.6188 3.40637 
490 2 7.64989 5.22502 4.01258 
491 1 7.04367 5.83124 3.40637 
492 2 7.64989 6.43745 4.01258 
505 1 8.25611 4.6188 3.40637 
506 2 8.86232 5.22502 4.01258 
507 1 8.25611 5.83124 3.40637 
508 2 8.86232 6.43745 4.01258 
269 1 -0.23094 7.04367 2.19393 
270 2 0.375277 7.64989 2.80015 
271 1 -0.23094 8.25611 2.19393 
272 2 0.375277 8.86232 2.80015 
285 1 0.981495 7.04367 2.19393 
286 2 1.58771 7.64989 2.80015 
287 1 0.981495 8.25611 2.19393 
288 2 1.58771 8.86232 2.80015 
397 1 -0.23094 7.04367 3.40637 
398 2 0.375277 7.64989 4.01258 
399 1 -0.23094 8.25611 3.40637 
400 2 0.375277 8.86232 4.01258 
413 1 0.981495 7.04367 3.40637 
414 2 1.58771 7.64989 4.01258 
415 1 0.981495 8.25611 3.40637 
416 2 1.58771 8.86232 4.01258 
301 1 2.19393 7.04367 2.19393 
302 2 2.80015 7.64989 2.80015 
303 1 2.19393 8.25611 2.19393 
304 2 2.80015 8.86232 2.80015 
317 1 3.40637 7.04367 2.19393 
318 2 4.01258 7.64989 2.80015 
319 1 3.40637 8.25611 2.19393 
320 2 4.01258 8.86232 2.80015 
429 1 2.19393 7.04367 3.40637 
430 2 2.80015 7.64989 4.01258 
431 1 2.19393 8.25611 3.40637 
432 2 2.80015 8.86232 4.01258 
445 1 3.40637 7.04367 3.40637 
446 2 4.01258 7.64989 4.01258 
447 1 3.40637 8.25611 3.40637 
448 2 4.01258 8.86232 4.01258 
333 1 4.6188 7.04367 2.19393 
334 2 5.22502 7.64989 2.80015 
335 1 4.6188 8.25611 2.19393 
336 2 5.22502 8.86232 2.80015 
349 1 5.83124 7.04367 2.19393 
350 2 6.43745 7.64989 2.80015 
351 1 5.83124 8.25611 2.19393 
352 2 6.43745 8.86232 2.80015 
461 1 4.6188 7.04367 3.40637 
462 2 5.22502 7.64989 4.01258 
463 1 4.6188 8.25611 3.40637 
464 2 5.22502 8.86232 4.01258 
477 1 5.83124 7.04367 3.40637 
478 2 6.43745 7.64989 4.01258 
479 1 5.83124 8.25611 3.40637 
480 2 6.43745 8.86232 4.01258 
365 1 7.04367 7.04367 2.19393 
366 2 7.64989 7.64989 2.80015 
367 1 7.04367 8.25611 2.19393 
368 2 7.64989 8.86232 2.80015 
381 1 8.25611 7.04367 2.19393 
382 2 8.86232 7.64989 2.80015 
383 1 8.25611 8.25611 2.19393 
384 2 8.86232 8.86232 2.80015 
493 1 7.04367 7.04367 3.40637 
494 2 7.64989 7.64989 4.01258 
495 1 7.04367 8.25611 3.40637 
496 2 7.64989 8.86232 4.01258 
509 1 8.25611 7.04367 3.40637 
510 2 8.86232 7.64989 4.01258 
511 1 8.25611 8.25611 3.40637 
512 2 8.86232 8.86232 4.01258 
521 1 -0.23094 4.6188 4.6188 
522 2 0.375277 5.22502 5.22502 
523 1 -0.23094 5.83124 4.6188 
524 2 0.375277 6.43745 5.22502 
537 1 0.981495 4.6188 4.6188 
538 2 1.58771 5.22502 5.22502 
539 1 0.981495 5.83124 4.6188 
540 2 1.58771 6.43745 5.22502 
649 1 -0.23094 4.6188 5.83124 
650 2 0.375277 5.22502 6.43745 
651 1 -0.23094 5.83124 5.83124 
652 2 0.375277 6.43745 6.43745 
665 1 0.981495 4.6188 5.83124 
666 2 1.58771 5.22502 6.43745 
667 1 0.981495 5.83124 5.83124 
668 2 1.58771 6.43745 6.43745 
553 1 2.19393 4.6188 4.6188 
554 2 2.80015 5.22502 5.22502 
555 1 2.19393 5.83124 4.6188 
556 2 2.80015 6.43745 5.22502 
569 1 3.40637 4.6188 4.6188 
570 2 4.01258 5.22502 5.22502 
571 1 3.40637 5.83124 4.6188 
572 2 4.01258 6.43745 5.22502 
681 1 2.19393 4.6188 5.83124 
682 2 2.80015 5.22502 6.43745 
683 1 2.19393 5.83124 5.83124 
684 2 2.80015 6.43745 6.43745 
697 1 3.40637 4.6188 5.83124 
698 2 4.01258 5.22502 6.43745 
699 1 3.40637 5.83124 5.83124 
700 2 4.01258 6.43745 6.43745 
585 1 4.6188 4.6188 4.6188 
586 2 5.22502 5.22502 5.22502 
587 1 4.6188 5.83124 4.6188 
588 2 5.22502 6.43745 5.22502 
601 1 5.83124 4.6188 4.6188 
602 2 6.43745 5.22502 5.22502 
603 1 5.83124 5.83124 4.6188 
604 2 6.43745 6.43745 5.22502 
713 1 4.6188 4.6188 5.83124 
714 2 5.22502 5.22502 6.43745 
715 1 4.6188 5.83124 5.83124 
716 2 5.22502 6.43745 6.43745 
729 1 5.83124 4.6188 5.83124 
730 2 6.43745 5.22502 6.43745 
731 1 5.83124 5.83124 5.83124 
732 2 6.43745 6.43745 6.43745 
617 1 7.04367 4.6188 4.6188 
618 2 7.64989 5.22502 5.22502 
619 1 7.04367 5.83124 4.6188 
620 2 7.64989 6.43745 5.22502 
633 1 8.25611 4.6188 4.6188 
634 2 8.86232 5.22502 5.22502 
635 1 8.25611 5.83124 4.6188 
636 2 8.86232 6.43745 5.22502 
745 1 7.04367 4.6188 5.83124 
746 2 7.64989 5.22502 6.43745 
747 1 7.04367 5.83124 5.83124 
748 2 7.64989 6.43745 6.43745 
761 1 8.25611 4.6188 5.83124 
762 2 8.86232 5.22502 6.43745 
763 1 8.25611 5.83124 5.83124 
764 2 8.86232 6.43745 6.43745 
525 1 -0.23094 7.04367 4.6188 
526 2 0.375277 7.64989 5.22502 
527 1 -0.23094 8.25611 4.6188 
528 2 0.375277 8.86232 5.22502 
541 1 0.981495 7.04367 4.6188 
542 2 1.58771 7.64989 5.22502 
543 1 0.981495 8.25611 4.6188 
544 2 1.58771 8.86232 5.22502 
653 1 -0.23094 7.04367 5.83124 
654 2 0.375277 7.64989 6.43745 
655 1 -0.23094 8.25611 5.83124 
656 2 0.375277 8.86232 6.43745 
669 1 0.981495 7.04367 5.83124 
670 2 1.58771 7.64989 6.43745 
671 1 0.981495 8.25611 5.83124 
672 2 1.58771 8.86232 6.43745 
557 1 2.19393 7.04367 4.6188 
558 2 2.80015 7.64989 5.22502 
559 1 2.19393 8.25611 4.6188 
560 2 2.80015 8.86232 5.22502 
573 1 3.40637 7.04367 4.6188 
574 2 4.01258 7.64989 5.22502 
575 1 3.40637 8.25611 4.6188 
576 2 4.01258 8.86232 5.22502 
685 1 2.19393 7.04367 5.83124 
686 2 2.80015 7.64989 6.43745 
687 1 2.19393 8.25611 5.83124 
688 2 2.80015 8.86232 6.43745 
701 1 3.40637 7.04367 5.83124 
702 2 4.01258 7.64989 6.43745 
703 1 3.40637 8.25611 5.83124 
704 2 4.01258 8.86232 6.43745 
589 1 4.6188 7.04367 4.6188 
590 2 5.22502 7.64989 5.22502 
591 1 4.6188 8.25611 4.6188 
592 2 5.22502 8.86232 5.22502 
605 1 5.83124 7.04367 4.6188 
606 2 6.43745 7.64989 5.22502 
607 1 5.83124 8.25611 4.6188 
608 2 6.43745 8.86232 5.22502 
717 1 4.6188 7.04367 5.83124 
718 2 5.22502 7.64989 6.43745 
719 1 4.6188 8.25611 5.83124 
720 2 5.22502 8.86232 6.43745 
733 1 5.83124 7.04367 5.83124 
734 2 6.43745 7.64989 6.43745 
735 1 5.83124 8.25611 5.83124 
736 2 6.43745 8.86232 6.43745 
621 1 7.04367 7.04367 4.6188 
622 2 7.64989 7.64989 5.22502 
623 1 7.04367 8.25611 4.6188 
624 2 7.64989 8.86232 5.22502 
637 1 8.25611 7.04367 4.6188 
638 2 8.86232 7.64989 5.22502 
639 1 8.25611 8.25611 4.6188 
640 2 8.86232 8.86232 5.22502 
749 1 7.04367 7.04367 5.83124 
750 2 7.64989 7.64989 6.43745 
751 1 7.04367 8.25611 5.83124 
752 2 7.64989 8.86232 6.43745 
765 1 8.25611 7.04367 5.83124 
766 2 8.86232 7.64989 6.43745 
767 1 8.25611 8.25611 5.83124 
768 2 8.86232 8.86232 6.43745 
777 1 -0.23094 4.6188 7.04367 
778 2 0.375277 5.22502 7.64989 
779 1 -0.23094 5.83124 7.04367 
780 2 0.375277 6.43745 7.64989 
793 1 0.981495 4.6188 7.04367 
794 2 1.58771 5.22502 7.64989 
795 1 0.981495 5.83124 7.04367 
796 2 1.58771 6.43745 7.64989 
905 1 -0.23094 4.6188 8.25611 
906 2 0.375277 5.22502 8.86232 
907 1 -0.23094 5.83124 8.25611 
908 2 0.375277 6.43745 8.86232 
921 1 0.981495 4.6188 8.25611 
922 2 1.58771 5.22502 8.86232 
923 1 0.981495 5.83124 8.25611 
924 2 1.58771 6.43745 8.86232 
809 1 2.19393 4.6188 7.04367 
810 2 2.80015 5.22502 7.64989 
811 1 2.19393 5.83124 7.04367 
812 2 2.80015 6.43745 7.64989 
825 1 3.40637 4.6188 7.04367 
826 2 4.01258 5.22502 7.64989 
827 1 3.40637 5.83124 7.04367 
828 2 4.01258 6.43745 7.64989 
937 1 2.19393 4.6188 8.25611 
938 2 2.80015 5.22502 8.86232 
939 1 2.19393 5.83124 8.25611 
940 2 2.80015 6.43745 8.86232 
953 1 3.40637 4.6188 8.25611 
954 2 4.01258 5.22502 8.86232 
955 1 3.40637 5.83124 8.25611 
956 2 4.01258 6.43745 8.86232 
841 1 4.6188 4.6188 7.04367 
842 2 5.22502 5.22502 7.64989 
843 1 4.6188 5.83124 7.04367 
844 2 5.22502 6.43745 7.64989 
857 1 5.83124 4.6188 7.04367 
858 2 6.43745 5.22502 7.64989 
859 1 5.83124 5.83124 7.04367 
860 2 6.43745 6.43745 7.64989 
969 1 4.6188 4.6188 8.25611 
970 2 5.22502 5.22502 8.86232 
971 1 4.6188 5.83124 8.25611 
972 2 5.22502 6.43745 8.86232 
985 1 5.83124 4.6188 8.25611 
986 2 6.43745 5.22502 8.86232 
987 1 5.83124 5.83124 8.25611 
988 2 6.43745 6.43745 8.86232 
873 1 7.04367 4.6188 7.04367 
874 2 7.64989 5.22502 7.64989 
875 1 7.04367 5.83124 7.04367 
876 2 7.64989 6.43745 7.64989 
889 1 8.25611 4.6188 7.04367 
890 2 8.86232 5.22502 7.64989 
891 1 8.25611 5.83124 7.04367 
892 2 8.86232 6.43745 7.64989 